<?xml version="1.0" encoding="UTF-8"?>

<!-- generated on 2025-12-30T11:17:25.085899+05:30 by Eclipse SUMO GUI 1.25.0
<sumoConfiguration xmlns:xsi="http://www.w3.org/2001/XMLSchema-instance" xsi:noNamespaceSchemaLocation="http://sumo.dlr.de/xsd/sumoConfiguration.xsd">

    <input>
        <net-file value="cross.net.xml"/>
        <route-files value="cross.rou.xml"/>
        <additional-files value="cross.add.xml"/>
    </input>

    <output>
        <tripinfo-output value="tripinfo.xml"/>
    </output>

    <time>
        <begin value="0"/>
        <end value="3600"/>
    </time>

</sumoConfiguration>
-->

<tripinfos xmlns:xsi="http://www.w3.org/2001/XMLSchema-instance" xsi:noNamespaceSchemaLocation="http://sumo.dlr.de/xsd/tripinfo_file.xsd">
    <tripinfo id="f_E.0" depart="0.00" departLane="E_in_0" departPos="5.10" departSpeed="0.00" departDelay="0.00" arrival="79.00" arrivalLane="W_out_0" arrivalPos="489.60" arrivalSpeed="13.72" duration="79.00" routeLength="994.90" waitingTime="0.00" waitingCount="0" stopTime="0.00" timeLoss="6.55" rerouteNo="0" devices="tripinfo_f_E.0" vType="car" speedFactor="1.08" vaporized=""/>
    <tripinfo id="f_E_L.0" depart="3.00" departLane="E_in_0" departPos="5.10" departSpeed="0.00" departDelay="3.00" arrival="83.00" arrivalLane="S_out_0" arrivalPos="489.60" arrivalSpeed="13.83" duration="80.00" routeLength="993.45" waitingTime="0.00" waitingCount="0" stopTime="0.00" timeLoss="7.03" rerouteNo="0" devices="tripinfo_f_E_L.0" vType="car" speedFactor="1.03" vaporized=""/>
    <tripinfo id="f_E.1" depart="12.00" departLane="E_in_0" departPos="5.10" departSpeed="0.00" departDelay="0.00" arrival="91.00" arrivalLane="W_out_0" arrivalPos="489.60" arrivalSpeed="13.41" duration="79.00" routeLength="994.90" waitingTime="0.00" waitingCount="0" stopTime="0.00" timeLoss="7.03" rerouteNo="0" devices="tripinfo_f_E.1" vType="car" speedFactor="1.12" vaporized=""/>
    <tripinfo id="f_E_R.0" depart="6.00" departLane="E_in_0" departPos="5.10" departSpeed="0.00" departDelay="6.00" arrival="100.00" arrivalLane="N_out_0" arrivalPos="489.60" arrivalSpeed="10.42" duration="94.00" routeLength="983.13" waitingTime="0.00" waitingCount="0" stopTime="0.00" timeLoss="7.79" rerouteNo="0" devices="tripinfo_f_E_R.0" vType="car" speedFactor="0.83" vaporized=""/>
    <tripinfo id="f_S.0" depart="0.00" departLane="S_in_0" departPos="5.10" departSpeed="0.00" departDelay="0.00" arrival="107.00" arrivalLane="N_out_0" arrivalPos="489.60" arrivalSpeed="13.42" duration="107.00" routeLength="994.90" waitingTime="23.00" waitingCount="1" stopTime="0.00" timeLoss="35.02" rerouteNo="0" devices="tripinfo_f_S.0" vType="car" speedFactor="1.05" vaporized=""/>
    <tripinfo id="f_S.1" depart="12.00" departLane="S_in_0" departPos="5.10" departSpeed="0.00" departDelay="0.00" arrival="109.00" arrivalLane="N_out_1" arrivalPos="489.60" arrivalSpeed="13.17" duration="97.00" routeLength="994.90" waitingTime="12.00" waitingCount="1" stopTime="0.00" timeLoss="24.05" rerouteNo="0" devices="tripinfo_f_S.1" vType="car" speedFactor="0.99" vaporized=""/>
    <tripinfo id="f_S_R.0" depart="6.00" departLane="S_in_0" departPos="5.10" departSpeed="0.00" departDelay="6.00" arrival="110.00" arrivalLane="W_out_0" arrivalPos="489.60" arrivalSpeed="12.48" duration="104.00" routeLength="993.45" waitingTime="14.00" waitingCount="1" stopTime="0.00" timeLoss="26.52" rerouteNo="0" devices="tripinfo_f_S_R.0" vType="car" speedFactor="0.94" vaporized=""/>
    <tripinfo id="f_S.2" depart="24.00" departLane="S_in_0" departPos="5.10" departSpeed="0.00" departDelay="0.00" arrival="113.00" arrivalLane="N_out_0" arrivalPos="489.60" arrivalSpeed="11.94" duration="89.00" routeLength="994.90" waitingTime="0.00" waitingCount="0" stopTime="0.00" timeLoss="12.35" rerouteNo="0" devices="tripinfo_f_S.2" vType="car" speedFactor="0.94" vaporized=""/>
    <tripinfo id="f_S_L.0" depart="3.00" departLane="S_in_0" departPos="5.10" departSpeed="0.00" departDelay="3.00" arrival="115.00" arrivalLane="E_out_0" arrivalPos="489.60" arrivalSpeed="11.39" duration="112.00" routeLength="983.13" waitingTime="18.00" waitingCount="1" stopTime="0.00" timeLoss="30.31" rerouteNo="0" devices="tripinfo_f_S_L.0" vType="car" speedFactor="0.89" vaporized=""/>
    <tripinfo id="f_S.3" depart="36.00" departLane="S_in_0" departPos="5.10" departSpeed="0.00" departDelay="0.00" arrival="122.00" arrivalLane="N_out_0" arrivalPos="489.60" arrivalSpeed="12.33" duration="86.00" routeLength="994.90" waitingTime="0.00" waitingCount="0" stopTime="0.00" timeLoss="7.10" rerouteNo="0" devices="tripinfo_f_S.3" vType="car" speedFactor="0.92" vaporized=""/>
    <tripinfo id="f_S_R.1" depart="42.00" departLane="S_in_0" departPos="5.10" departSpeed="0.00" departDelay="6.00" arrival="122.00" arrivalLane="W_out_0" arrivalPos="489.60" arrivalSpeed="13.20" duration="80.00" routeLength="993.45" waitingTime="0.00" waitingCount="0" stopTime="0.00" timeLoss="7.14" rerouteNo="0" devices="tripinfo_f_S_R.1" vType="car" speedFactor="1.13" vaporized=""/>
    <tripinfo id="f_S_L.1" depart="39.00" departLane="S_in_0" departPos="5.10" departSpeed="0.00" departDelay="3.00" arrival="123.00" arrivalLane="E_out_0" arrivalPos="489.60" arrivalSpeed="11.99" duration="84.00" routeLength="983.13" waitingTime="0.00" waitingCount="0" stopTime="0.00" timeLoss="8.41" rerouteNo="0" devices="tripinfo_f_S_L.1" vType="car" speedFactor="0.95" vaporized=""/>
    <tripinfo id="f_S.4" depart="48.00" departLane="S_in_0" departPos="5.10" departSpeed="0.00" departDelay="0.00" arrival="127.00" arrivalLane="N_out_0" arrivalPos="489.60" arrivalSpeed="13.54" duration="79.00" routeLength="994.90" waitingTime="0.00" waitingCount="0" stopTime="0.00" timeLoss="6.46" rerouteNo="0" devices="tripinfo_f_S.4" vType="car" speedFactor="0.99" vaporized=""/>
    <tripinfo id="f_W.0" depart="0.00" departLane="W_in_0" departPos="5.10" departSpeed="0.00" departDelay="0.00" arrival="140.00" arrivalLane="E_out_0" arrivalPos="489.60" arrivalSpeed="13.43" duration="140.00" routeLength="994.90" waitingTime="56.00" waitingCount="1" stopTime="0.00" timeLoss="67.90" rerouteNo="0" devices="tripinfo_f_W.0" vType="car" speedFactor="1.06" vaporized=""/>
    <tripinfo id="f_W_R.0" depart="6.00" departLane="W_in_0" departPos="5.10" departSpeed="0.00" departDelay="6.00" arrival="142.00" arrivalLane="S_out_0" arrivalPos="489.60" arrivalSpeed="12.78" duration="136.00" routeLength="983.13" waitingTime="52.00" waitingCount="1" stopTime="0.00" timeLoss="63.40" rerouteNo="0" devices="tripinfo_f_W_R.0" vType="car" speedFactor="1.01" vaporized=""/>
    <tripinfo id="f_W.1" depart="12.00" departLane="W_in_0" departPos="5.10" departSpeed="0.00" departDelay="0.00" arrival="142.00" arrivalLane="E_out_0" arrivalPos="489.60" arrivalSpeed="13.60" duration="130.00" routeLength="994.90" waitingTime="45.00" waitingCount="1" stopTime="0.00" timeLoss="57.82" rerouteNo="0" devices="tripinfo_f_W.1" vType="car" speedFactor="1.05" vaporized=""/>
    <tripinfo id="f_W_L.0" depart="3.00" departLane="W_in_0" departPos="5.10" departSpeed="0.00" departDelay="3.00" arrival="143.00" arrivalLane="N_out_0" arrivalPos="489.60" arrivalSpeed="12.60" duration="140.00" routeLength="993.45" waitingTime="51.00" waitingCount="1" stopTime="0.00" timeLoss="62.42" rerouteNo="0" devices="tripinfo_f_W_L.0" vType="car" speedFactor="0.94" vaporized=""/>
    <tripinfo id="f_W.3" depart="36.00" departLane="W_in_0" departPos="5.10" departSpeed="0.00" departDelay="0.00" arrival="144.00" arrivalLane="E_out_0" arrivalPos="489.60" arrivalSpeed="13.85" duration="108.00" routeLength="994.90" waitingTime="22.00" waitingCount="1" stopTime="0.00" timeLoss="36.25" rerouteNo="0" devices="tripinfo_f_W.3" vType="car" speedFactor="1.02" vaporized=""/>
    <tripinfo id="f_W_L.1" depart="39.00" departLane="W_in_0" departPos="5.10" departSpeed="0.00" departDelay="3.00" arrival="146.00" arrivalLane="N_out_0" arrivalPos="489.60" arrivalSpeed="12.69" duration="107.00" routeLength="993.45" waitingTime="21.00" waitingCount="1" stopTime="0.00" timeLoss="34.79" rerouteNo="0" devices="tripinfo_f_W_L.1" vType="car" speedFactor="1.01" vaporized=""/>
    <tripinfo id="f_W_R.1" depart="42.00" departLane="W_in_0" departPos="5.10" departSpeed="0.00" departDelay="6.00" arrival="148.00" arrivalLane="S_out_0" arrivalPos="489.60" arrivalSpeed="13.14" duration="106.00" routeLength="983.13" waitingTime="19.00" waitingCount="1" stopTime="0.00" timeLoss="31.91" rerouteNo="0" devices="tripinfo_f_W_R.1" vType="car" speedFactor="0.97" vaporized=""/>
    <tripinfo id="f_W.2" depart="24.00" departLane="W_in_0" departPos="5.10" departSpeed="0.00" departDelay="0.00" arrival="149.00" arrivalLane="E_out_0" arrivalPos="489.60" arrivalSpeed="11.75" duration="125.00" routeLength="994.90" waitingTime="30.00" waitingCount="1" stopTime="0.00" timeLoss="43.02" rerouteNo="0" devices="tripinfo_f_W.2" vType="car" speedFactor="0.88" vaporized=""/>
    <tripinfo id="f_W.5" depart="60.00" departLane="W_in_0" departPos="5.10" departSpeed="0.00" departDelay="0.00" arrival="149.00" arrivalLane="E_out_1" arrivalPos="489.60" arrivalSpeed="12.49" duration="89.00" routeLength="994.90" waitingTime="0.00" waitingCount="0" stopTime="0.00" timeLoss="14.82" rerouteNo="0" devices="tripinfo_f_W.5" vType="car" speedFactor="0.97" vaporized=""/>
    <tripinfo id="f_W.4" depart="48.00" departLane="W_in_0" departPos="5.10" departSpeed="0.00" departDelay="0.00" arrival="151.00" arrivalLane="E_out_0" arrivalPos="489.60" arrivalSpeed="13.19" duration="103.00" routeLength="994.90" waitingTime="14.00" waitingCount="1" stopTime="0.00" timeLoss="30.51" rerouteNo="0" devices="tripinfo_f_W.4" vType="car" speedFactor="1.01" vaporized=""/>
    <tripinfo id="f_W.6" depart="72.00" departLane="W_in_0" departPos="5.10" departSpeed="0.00" departDelay="0.00" arrival="151.00" arrivalLane="E_out_1" arrivalPos="489.60" arrivalSpeed="12.76" duration="79.00" routeLength="994.90" waitingTime="0.00" waitingCount="0" stopTime="0.00" timeLoss="6.54" rerouteNo="0" devices="tripinfo_f_W.6" vType="car" speedFactor="1.03" vaporized=""/>
    <tripinfo id="f_W_L.2" depart="75.00" departLane="W_in_0" departPos="5.10" departSpeed="0.00" departDelay="3.00" arrival="158.00" arrivalLane="N_out_0" arrivalPos="489.60" arrivalSpeed="13.01" duration="83.00" routeLength="993.45" waitingTime="0.00" waitingCount="0" stopTime="0.00" timeLoss="7.39" rerouteNo="0" devices="tripinfo_f_W_L.2" vType="car" speedFactor="0.96" vaporized=""/>
    <tripinfo id="f_W_R.2" depart="78.00" departLane="W_in_0" departPos="5.10" departSpeed="0.00" departDelay="6.00" arrival="158.00" arrivalLane="S_out_0" arrivalPos="489.60" arrivalSpeed="13.11" duration="80.00" routeLength="983.13" waitingTime="0.00" waitingCount="0" stopTime="0.00" timeLoss="8.33" rerouteNo="0" devices="tripinfo_f_W_R.2" vType="car" speedFactor="1.09" vaporized=""/>
    <tripinfo id="f_W.7" depart="84.00" departLane="W_in_0" departPos="5.10" departSpeed="0.00" departDelay="0.00" arrival="162.00" arrivalLane="E_out_0" arrivalPos="489.60" arrivalSpeed="12.63" duration="78.00" routeLength="994.90" waitingTime="0.00" waitingCount="0" stopTime="0.00" timeLoss="5.90" rerouteNo="0" devices="tripinfo_f_W.7" vType="car" speedFactor="1.02" vaporized=""/>
    <tripinfo id="f_N_R.0" depart="6.00" departLane="N_in_0" departPos="5.10" departSpeed="0.00" departDelay="6.00" arrival="173.00" arrivalLane="E_out_0" arrivalPos="489.60" arrivalSpeed="13.01" duration="167.00" routeLength="993.45" waitingTime="84.00" waitingCount="1" stopTime="0.00" timeLoss="94.75" rerouteNo="0" devices="tripinfo_f_N_R.0" vType="car" speedFactor="1.03" vaporized=""/>
    <tripinfo id="f_N_L.0" depart="3.00" departLane="N_in_0" departPos="5.10" departSpeed="0.00" departDelay="3.00" arrival="175.00" arrivalLane="W_out_0" arrivalPos="489.60" arrivalSpeed="13.79" duration="172.00" routeLength="983.13" waitingTime="82.00" waitingCount="1" stopTime="0.00" timeLoss="99.70" rerouteNo="0" devices="tripinfo_f_N_L.0" vType="car" speedFactor="1.09" vaporized=""/>
    <tripinfo id="f_N.1" depart="12.00" departLane="N_in_0" departPos="5.10" departSpeed="0.00" departDelay="0.00" arrival="178.00" arrivalLane="S_out_0" arrivalPos="489.60" arrivalSpeed="12.74" duration="166.00" routeLength="994.90" waitingTime="75.00" waitingCount="1" stopTime="0.00" timeLoss="88.12" rerouteNo="0" devices="tripinfo_f_N.1" vType="car" speedFactor="0.93" vaporized=""/>
    <tripinfo id="f_N.0" depart="0.00" departLane="N_in_0" departPos="5.10" departSpeed="0.00" departDelay="0.00" arrival="179.00" arrivalLane="S_out_0" arrivalPos="489.60" arrivalSpeed="10.90" duration="179.00" routeLength="994.90" waitingTime="84.00" waitingCount="1" stopTime="0.00" timeLoss="95.38" rerouteNo="0" devices="tripinfo_f_N.0" vType="car" speedFactor="0.86" vaporized=""/>
    <tripinfo id="f_N_L.1" depart="39.00" departLane="N_in_0" departPos="5.10" departSpeed="0.00" departDelay="3.00" arrival="179.00" arrivalLane="W_out_0" arrivalPos="489.60" arrivalSpeed="13.51" duration="140.00" routeLength="983.13" waitingTime="53.00" waitingCount="1" stopTime="0.00" timeLoss="67.97" rerouteNo="0" devices="tripinfo_f_N_L.1" vType="car" speedFactor="1.18" vaporized=""/>
    <tripinfo id="f_N_R.1" depart="42.00" departLane="N_in_0" departPos="5.10" departSpeed="0.00" departDelay="6.00" arrival="179.00" arrivalLane="E_out_0" arrivalPos="489.60" arrivalSpeed="13.58" duration="137.00" routeLength="993.45" waitingTime="50.00" waitingCount="1" stopTime="0.00" timeLoss="64.55" rerouteNo="0" devices="tripinfo_f_N_R.1" vType="car" speedFactor="1.15" vaporized=""/>
    <tripinfo id="f_N.3" depart="36.00" departLane="N_in_0" departPos="5.10" departSpeed="0.00" departDelay="0.00" arrival="180.00" arrivalLane="S_out_1" arrivalPos="489.60" arrivalSpeed="11.91" duration="144.00" routeLength="994.90" waitingTime="53.00" waitingCount="1" stopTime="0.00" timeLoss="66.51" rerouteNo="0" devices="tripinfo_f_N.3" vType="car" speedFactor="0.93" vaporized=""/>
    <tripinfo id="f_N.2" depart="24.00" departLane="N_in_0" departPos="5.10" departSpeed="0.00" departDelay="0.00" arrival="181.00" arrivalLane="S_out_0" arrivalPos="489.60" arrivalSpeed="12.80" duration="157.00" routeLength="994.90" waitingTime="69.00" waitingCount="1" stopTime="0.00" timeLoss="84.90" rerouteNo="0" devices="tripinfo_f_N.2" vType="car" speedFactor="1.16" vaporized=""/>
    <tripinfo id="f_N.4" depart="48.00" departLane="N_in_0" departPos="5.10" departSpeed="0.00" departDelay="0.00" arrival="181.00" arrivalLane="S_out_1" arrivalPos="489.60" arrivalSpeed="13.65" duration="133.00" routeLength="994.90" waitingTime="47.00" waitingCount="1" stopTime="0.00" timeLoss="61.38" rerouteNo="0" devices="tripinfo_f_N.4" vType="car" speedFactor="1.02" vaporized=""/>
    <tripinfo id="f_N_R.2" depart="78.00" departLane="N_in_0" departPos="5.10" departSpeed="0.00" departDelay="6.00" arrival="183.00" arrivalLane="E_out_0" arrivalPos="489.60" arrivalSpeed="13.83" duration="105.00" routeLength="993.45" waitingTime="19.00" waitingCount="1" stopTime="0.00" timeLoss="32.59" rerouteNo="0" devices="tripinfo_f_N_R.2" vType="car" speedFactor="1.17" vaporized=""/>
    <tripinfo id="f_N.5" depart="60.00" departLane="N_in_0" departPos="5.10" departSpeed="0.00" departDelay="0.00" arrival="185.00" arrivalLane="S_out_0" arrivalPos="489.60" arrivalSpeed="11.45" duration="125.00" routeLength="994.90" waitingTime="32.00" waitingCount="1" stopTime="0.00" timeLoss="45.20" rerouteNo="0" devices="tripinfo_f_N.5" vType="car" speedFactor="0.90" vaporized=""/>
    <tripinfo id="f_N.7" depart="84.00" departLane="N_in_0" departPos="5.10" departSpeed="0.00" departDelay="0.00" arrival="185.00" arrivalLane="S_out_1" arrivalPos="489.60" arrivalSpeed="13.30" duration="101.00" routeLength="994.90" waitingTime="14.00" waitingCount="1" stopTime="0.00" timeLoss="28.42" rerouteNo="0" devices="tripinfo_f_N.7" vType="car" speedFactor="1.00" vaporized=""/>
    <tripinfo id="f_N.9" depart="108.00" departLane="N_in_0" departPos="5.10" departSpeed="0.00" departDelay="0.00" arrival="187.00" arrivalLane="S_out_1" arrivalPos="489.60" arrivalSpeed="13.30" duration="79.00" routeLength="994.90" waitingTime="0.00" waitingCount="0" stopTime="0.00" timeLoss="6.56" rerouteNo="0" devices="tripinfo_f_N.9" vType="car" speedFactor="1.02" vaporized=""/>
    <tripinfo id="f_N.6" depart="72.00" departLane="N_in_0" departPos="5.10" departSpeed="0.00" departDelay="0.00" arrival="189.00" arrivalLane="S_out_0" arrivalPos="489.60" arrivalSpeed="10.70" duration="117.00" routeLength="994.90" waitingTime="19.00" waitingCount="1" stopTime="0.00" timeLoss="32.44" rerouteNo="0" devices="tripinfo_f_N.6" vType="car" speedFactor="0.85" vaporized=""/>
    <tripinfo id="f_N.8" depart="96.00" departLane="N_in_0" departPos="5.10" departSpeed="0.00" departDelay="0.00" arrival="190.00" arrivalLane="S_out_1" arrivalPos="489.60" arrivalSpeed="13.32" duration="94.00" routeLength="994.90" waitingTime="4.00" waitingCount="1" stopTime="0.00" timeLoss="19.40" rerouteNo="0" devices="tripinfo_f_N.8" vType="car" speedFactor="0.97" vaporized=""/>
    <tripinfo id="f_N_L.3" depart="111.00" departLane="N_in_0" departPos="5.10" departSpeed="0.00" departDelay="3.00" arrival="191.00" arrivalLane="W_out_1" arrivalPos="489.60" arrivalSpeed="13.05" duration="80.00" routeLength="983.13" waitingTime="0.00" waitingCount="0" stopTime="0.00" timeLoss="8.31" rerouteNo="0" devices="tripinfo_f_N_L.3" vType="car" speedFactor="1.02" vaporized=""/>
    <tripinfo id="f_N_L.2" depart="75.00" departLane="N_in_0" departPos="5.10" departSpeed="0.00" departDelay="3.00" arrival="192.00" arrivalLane="W_out_0" arrivalPos="489.60" arrivalSpeed="10.80" duration="117.00" routeLength="983.13" waitingTime="18.00" waitingCount="1" stopTime="0.00" timeLoss="32.92" rerouteNo="0" devices="tripinfo_f_N_L.2" vType="car" speedFactor="0.85" vaporized=""/>
    <tripinfo id="f_N_R.3" depart="114.00" departLane="N_in_0" departPos="5.10" departSpeed="0.00" departDelay="6.00" arrival="196.00" arrivalLane="E_out_0" arrivalPos="489.60" arrivalSpeed="12.90" duration="82.00" routeLength="993.45" waitingTime="0.00" waitingCount="0" stopTime="0.00" timeLoss="7.84" rerouteNo="0" devices="tripinfo_f_N_R.3" vType="car" speedFactor="0.97" vaporized=""/>
    <tripinfo id="f_N.10" depart="120.00" departLane="N_in_0" departPos="5.10" departSpeed="0.00" departDelay="0.00" arrival="200.00" arrivalLane="S_out_0" arrivalPos="489.60" arrivalSpeed="13.20" duration="80.00" routeLength="994.90" waitingTime="0.00" waitingCount="0" stopTime="0.00" timeLoss="7.18" rerouteNo="0" devices="tripinfo_f_N.10" vType="car" speedFactor="0.98" vaporized=""/>
    <tripinfo id="f_E.2" depart="24.00" departLane="E_in_0" departPos="5.10" departSpeed="0.00" departDelay="0.00" arrival="209.00" arrivalLane="W_out_0" arrivalPos="489.60" arrivalSpeed="11.92" duration="185.00" routeLength="994.90" waitingTime="96.00" waitingCount="1" stopTime="0.00" timeLoss="108.07" rerouteNo="0" devices="tripinfo_f_E.2" vType="car" speedFactor="0.94" vaporized=""/>
    <tripinfo id="f_E.3" depart="36.00" departLane="E_in_0" departPos="5.10" departSpeed="0.00" departDelay="0.00" arrival="211.00" arrivalLane="W_out_1" arrivalPos="489.60" arrivalSpeed="11.96" duration="175.00" routeLength="994.90" waitingTime="80.00" waitingCount="1" stopTime="0.00" timeLoss="94.09" rerouteNo="0" devices="tripinfo_f_E.3" vType="car" speedFactor="0.89" vaporized=""/>
    <tripinfo id="f_E.5" depart="60.00" departLane="E_in_0" departPos="5.10" departSpeed="0.00" departDelay="0.00" arrival="211.00" arrivalLane="W_out_0" arrivalPos="489.60" arrivalSpeed="13.05" duration="151.00" routeLength="994.90" waitingTime="66.00" waitingCount="1" stopTime="0.00" timeLoss="78.58" rerouteNo="0" devices="tripinfo_f_E.5" vType="car" speedFactor="1.18" vaporized=""/>
    <tripinfo id="f_E.6" depart="72.00" departLane="E_in_0" departPos="5.10" departSpeed="0.00" departDelay="0.00" arrival="212.00" arrivalLane="W_out_0" arrivalPos="489.60" arrivalSpeed="13.82" duration="140.00" routeLength="994.90" waitingTime="55.00" waitingCount="1" stopTime="0.00" timeLoss="68.34" rerouteNo="0" devices="tripinfo_f_E.6" vType="car" speedFactor="1.04" vaporized=""/>
    <tripinfo id="f_E_L.2" depart="74.00" departLane="E_in_0" departPos="5.10" departSpeed="0.00" departDelay="2.00" arrival="212.00" arrivalLane="S_out_0" arrivalPos="489.60" arrivalSpeed="13.07" duration="138.00" routeLength="993.45" waitingTime="52.00" waitingCount="1" stopTime="0.00" timeLoss="65.47" rerouteNo="0" devices="tripinfo_f_E_L.2" vType="car" speedFactor="1.04" vaporized=""/>
    <tripinfo id="f_E.4" depart="48.00" departLane="E_in_0" departPos="5.10" departSpeed="0.00" departDelay="0.00" arrival="213.00" arrivalLane="W_out_1" arrivalPos="489.60" arrivalSpeed="13.35" duration="165.00" routeLength="994.90" waitingTime="76.00" waitingCount="1" stopTime="0.00" timeLoss="92.71" rerouteNo="0" devices="tripinfo_f_E.4" vType="car" speedFactor="1.17" vaporized=""/>
    <tripinfo id="f_E_R.1" depart="42.00" departLane="E_in_0" departPos="5.10" departSpeed="0.00" departDelay="6.00" arrival="214.00" arrivalLane="N_out_0" arrivalPos="489.60" arrivalSpeed="11.65" duration="172.00" routeLength="983.13" waitingTime="78.00" waitingCount="1" stopTime="0.00" timeLoss="89.32" rerouteNo="0" devices="tripinfo_f_E_R.1" vType="car" speedFactor="0.87" vaporized=""/>
    <tripinfo id="f_E.7" depart="84.00" departLane="E_in_0" departPos="5.10" departSpeed="0.00" departDelay="0.00" arrival="214.00" arrivalLane="W_out_1" arrivalPos="489.60" arrivalSpeed="13.73" duration="130.00" routeLength="994.90" waitingTime="44.00" waitingCount="1" stopTime="0.00" timeLoss="58.35" rerouteNo="0" devices="tripinfo_f_E.7" vType="car" speedFactor="1.10" vaporized=""/>
    <tripinfo id="f_E_R.2" depart="78.00" departLane="E_in_0" departPos="5.10" departSpeed="0.00" departDelay="6.00" arrival="215.00" arrivalLane="N_out_1" arrivalPos="489.60" arrivalSpeed="13.49" duration="137.00" routeLength="983.13" waitingTime="50.00" waitingCount="1" stopTime="0.00" timeLoss="65.10" rerouteNo="0" devices="tripinfo_f_E_R.2" vType="car" speedFactor="1.09" vaporized=""/>
    <tripinfo id="f_E.9" depart="108.00" departLane="E_in_0" departPos="5.10" departSpeed="0.00" departDelay="0.00" arrival="216.00" arrivalLane="W_out_1" arrivalPos="489.60" arrivalSpeed="13.49" duration="108.00" routeLength="994.90" waitingTime="21.00" waitingCount="1" stopTime="0.00" timeLoss="35.20" rerouteNo="0" devices="tripinfo_f_E.9" vType="car" speedFactor="0.99" vaporized=""/>
    <tripinfo id="f_E_L.1" depart="39.00" departLane="E_in_0" departPos="5.10" departSpeed="0.00" departDelay="3.00" arrival="217.00" arrivalLane="S_out_0" arrivalPos="489.60" arrivalSpeed="10.36" duration="178.00" routeLength="993.45" waitingTime="77.00" waitingCount="1" stopTime="0.00" timeLoss="90.04" rerouteNo="0" devices="tripinfo_f_E_L.1" vType="car" speedFactor="0.83" vaporized=""/>
    <tripinfo id="f_E.8" depart="96.00" departLane="E_in_0" departPos="5.10" departSpeed="0.00" departDelay="0.00" arrival="217.00" arrivalLane="W_out_0" arrivalPos="489.60" arrivalSpeed="13.45" duration="121.00" routeLength="994.90" waitingTime="35.00" waitingCount="1" stopTime="0.00" timeLoss="48.65" rerouteNo="0" devices="tripinfo_f_E.8" vType="car" speedFactor="1.14" vaporized=""/>
    <tripinfo id="f_E.11" depart="132.00" departLane="E_in_0" departPos="5.10" departSpeed="0.00" departDelay="0.00" arrival="221.00" arrivalLane="W_out_1" arrivalPos="489.60" arrivalSpeed="13.08" duration="89.00" routeLength="994.90" waitingTime="0.00" waitingCount="0" stopTime="0.00" timeLoss="15.81" rerouteNo="0" devices="tripinfo_f_E.11" vType="car" speedFactor="0.98" vaporized=""/>
    <tripinfo id="f_E_L.3" depart="111.00" departLane="E_in_0" departPos="5.10" departSpeed="0.00" departDelay="3.00" arrival="222.00" arrivalLane="S_out_0" arrivalPos="489.60" arrivalSpeed="11.91" duration="111.00" routeLength="993.45" waitingTime="19.00" waitingCount="1" stopTime="0.00" timeLoss="33.06" rerouteNo="0" devices="tripinfo_f_E_L.3" vType="car" speedFactor="0.94" vaporized=""/>
    <tripinfo id="f_E.10" depart="120.00" departLane="E_in_0" departPos="5.10" departSpeed="0.00" departDelay="0.00" arrival="222.00" arrivalLane="W_out_0" arrivalPos="489.60" arrivalSpeed="12.61" duration="102.00" routeLength="994.90" waitingTime="12.00" waitingCount="1" stopTime="0.00" timeLoss="29.74" rerouteNo="0" devices="tripinfo_f_E.10" vType="car" speedFactor="1.06" vaporized=""/>
    <tripinfo id="f_E_R.3" depart="114.00" departLane="E_in_0" departPos="5.10" departSpeed="0.00" departDelay="6.00" arrival="225.00" arrivalLane="N_out_0" arrivalPos="489.60" arrivalSpeed="11.39" duration="111.00" routeLength="983.13" waitingTime="14.00" waitingCount="1" stopTime="0.00" timeLoss="29.83" rerouteNo="0" devices="tripinfo_f_E_R.3" vType="car" speedFactor="0.88" vaporized=""/>
    <tripinfo id="f_E.12" depart="144.00" departLane="E_in_0" departPos="5.10" departSpeed="0.00" departDelay="0.00" arrival="225.00" arrivalLane="W_out_0" arrivalPos="489.60" arrivalSpeed="12.80" duration="81.00" routeLength="994.90" waitingTime="0.00" waitingCount="0" stopTime="0.00" timeLoss="6.38" rerouteNo="0" devices="tripinfo_f_E.12" vType="car" speedFactor="0.97" vaporized=""/>
    <tripinfo id="f_E_L.4" depart="147.00" departLane="E_in_0" departPos="5.10" departSpeed="0.00" departDelay="3.00" arrival="226.00" arrivalLane="S_out_0" arrivalPos="489.60" arrivalSpeed="13.69" duration="79.00" routeLength="993.45" waitingTime="0.00" waitingCount="0" stopTime="0.00" timeLoss="6.64" rerouteNo="0" devices="tripinfo_f_E_L.4" vType="car" speedFactor="1.15" vaporized=""/>
    <tripinfo id="f_E_R.4" depart="150.00" departLane="E_in_0" departPos="5.10" departSpeed="0.00" departDelay="6.00" arrival="232.00" arrivalLane="N_out_0" arrivalPos="489.60" arrivalSpeed="12.50" duration="82.00" routeLength="983.13" waitingTime="0.00" waitingCount="0" stopTime="0.00" timeLoss="8.43" rerouteNo="0" devices="tripinfo_f_E_R.4" vType="car" speedFactor="0.98" vaporized=""/>
    <tripinfo id="f_S.5" depart="60.00" departLane="S_in_0" departPos="5.10" departSpeed="0.00" departDelay="0.00" arrival="239.00" arrivalLane="N_out_0" arrivalPos="489.60" arrivalSpeed="13.12" duration="179.00" routeLength="994.90" waitingTime="95.00" waitingCount="1" stopTime="0.00" timeLoss="107.25" rerouteNo="0" devices="tripinfo_f_S.5" vType="car" speedFactor="1.10" vaporized=""/>
    <tripinfo id="f_S.6" depart="72.00" departLane="S_in_0" departPos="5.10" departSpeed="0.00" departDelay="0.00" arrival="239.00" arrivalLane="N_out_1" arrivalPos="489.60" arrivalSpeed="13.37" duration="167.00" routeLength="994.90" waitingTime="83.00" waitingCount="1" stopTime="0.00" timeLoss="94.80" rerouteNo="0" devices="tripinfo_f_S.6" vType="car" speedFactor="1.00" vaporized=""/>
    <tripinfo id="f_S.7" depart="84.00" departLane="S_in_0" departPos="5.10" departSpeed="0.00" departDelay="0.00" arrival="243.00" arrivalLane="N_out_0" arrivalPos="489.60" arrivalSpeed="13.01" duration="159.00" routeLength="994.90" waitingTime="75.00" waitingCount="1" stopTime="0.00" timeLoss="87.34" rerouteNo="0" devices="tripinfo_f_S.7" vType="car" speedFactor="1.00" vaporized=""/>
    <tripinfo id="f_S.8" depart="96.00" departLane="S_in_0" departPos="5.10" departSpeed="0.00" departDelay="0.00" arrival="243.00" arrivalLane="N_out_1" arrivalPos="489.60" arrivalSpeed="13.86" duration="147.00" routeLength="994.90" waitingTime="62.00" waitingCount="1" stopTime="0.00" timeLoss="74.97" rerouteNo="0" devices="tripinfo_f_S.8" vType="car" speedFactor="1.02" vaporized=""/>
    <tripinfo id="f_S_L.2" depart="75.00" departLane="S_in_0" departPos="5.10" departSpeed="0.00" departDelay="3.00" arrival="245.00" arrivalLane="E_out_0" arrivalPos="489.60" arrivalSpeed="12.15" duration="170.00" routeLength="983.13" waitingTime="78.00" waitingCount="1" stopTime="0.00" timeLoss="90.59" rerouteNo="0" devices="tripinfo_f_S_L.2" vType="car" speedFactor="0.90" vaporized=""/>
    <tripinfo id="f_S_R.3" depart="114.00" departLane="S_in_0" departPos="5.10" departSpeed="0.00" departDelay="6.00" arrival="245.00" arrivalLane="W_out_0" arrivalPos="489.60" arrivalSpeed="13.81" duration="131.00" routeLength="993.45" waitingTime="45.00" waitingCount="1" stopTime="0.00" timeLoss="58.49" rerouteNo="0" devices="tripinfo_f_S_R.3" vType="car" speedFactor="1.04" vaporized=""/>
    <tripinfo id="f_S_R.2" depart="78.00" departLane="S_in_0" departPos="5.10" departSpeed="0.00" departDelay="6.00" arrival="247.00" arrivalLane="W_out_0" arrivalPos="489.60" arrivalSpeed="11.28" duration="169.00" routeLength="993.45" waitingTime="73.00" waitingCount="1" stopTime="0.00" timeLoss="86.07" rerouteNo="0" devices="tripinfo_f_S_R.2" vType="car" speedFactor="0.88" vaporized=""/>
    <tripinfo id="f_S.10" depart="120.00" departLane="S_in_0" departPos="5.10" departSpeed="0.00" departDelay="0.00" arrival="249.00" arrivalLane="N_out_1" arrivalPos="489.60" arrivalSpeed="12.48" duration="129.00" routeLength="994.90" waitingTime="41.00" waitingCount="1" stopTime="0.00" timeLoss="53.53" rerouteNo="0" devices="tripinfo_f_S.10" vType="car" speedFactor="0.96" vaporized=""/>
    <tripinfo id="f_S.9" depart="108.00" departLane="S_in_0" departPos="5.10" departSpeed="0.00" departDelay="0.00" arrival="250.00" arrivalLane="N_out_0" arrivalPos="489.60" arrivalSpeed="11.75" duration="142.00" routeLength="994.90" waitingTime="49.00" waitingCount="1" stopTime="0.00" timeLoss="62.21" rerouteNo="0" devices="tripinfo_f_S.9" vType="car" speedFactor="0.91" vaporized=""/>